 &FCI NORB=   6,NELEC=10,MS2=0,
  ORBSYM=1,1,1,1,1,1,
  ISYM=1,
 &END
 5.365368459652089    1    1    1    1
 -0.531040922193513    1    1    2    1
 1.255216884268633    1    1    2    2
 1.264034185652192    1    1    3    3
 1.264034185652191    1    1    4    4
 0.04273206750273179    1    1    5    1
 -0.06326720770218229    1    1    5    2
 1.073272107456799e-15    1    1    5    4
 0.8032413695944636    1    1    5    5
 0.04718186788679879    1    1    6    1
 -0.07009279355375876    1    1    6    2
 -0.4787795687601698    1    1    6    5
 0.775267339089205    1    1    6    6
 -0.5310409221935127    2    1    1    1
 0.08278639002283514    2    1    2    1
 -0.02412175223009713    2    1    2    2
 -0.01547109048182645    2    1    3    3
 -0.01547109048182644    2    1    4    4
 -0.006663150337459974    2    1    5    1
 0.002033035565476802    2    1    5    2
 -0.007814611896723988    2    1    5    5
 -0.007401948202746986    2    1    6    1
 0.002063531300523226    2    1    6    2
 0.00762097625631038    2    1    6    5
 -0.008139709045321505    2    1    6    6
 1.255216884268633    2    2    1    1
 -0.02412175223009713    2    2    2    1
 0.8919822050586912    2    2    2    2
 0.9065871035327147    2    2    3    3
 0.9065871035327143    2    2    4    4
 0.002167506027550671    2    2    5    1
 -0.03350192050631369    2    2    5    2
 0.6239495282996074    2    2    5    5
 0.002085290846927226    2    2    6    1
 -0.03946996804002342    2    2    6    2
 -0.3002923232102609    2    2    6    5
 0.5919302662582027    2    2    6    6
 0.02950476130730957    3    1    3    1
 0.04063990505691981    3    1    3    2
 -0.002988334041391117    3    1    5    3
 -0.003176118238949012    3    1    6    3
 0.04063990505691981    3    2    3    1
 0.1939663057794713    3    2    3    2
 -0.01257389767593025    3    2    5    3
 -0.01331738529900934    3    2    6    3
 1.264034185652193    3    3    1    1
 -0.01547109048182656    3    3    2    1
 0.9065871035327145    3    3    2    2
 0.9975136259296558    3    3    3    3
 0.889972885733179    3    3    4    4
 0.001266547057642471    3    3    5    1
 -0.03674375388939089    3    3    5    2
 0.6106838168188    3    3    5    5
 0.001453029663436761    3    3    6    1
 -0.04066704054125216    3    3    6    2
 -0.2958483038202721    3    3    6    5
 0.5804211820637686    3    3    6    6
 0.02950476130730956    4    1    4    1
 0.0406399050569198    4    1    4    2
 -0.002988334041391117    4    1    5    4
 -0.003176118238949012    4    1    6    4
 0.0406399050569198    4    2    4    1
 0.1939663057794712    4    2    4    2
 -0.01257389767593024    4    2    5    4
 -0.01331738529900934    4    2    6    4
 0.05377037009823846    4    3    4    3
 1.264034185652192    4    4    1    1
 -0.01547109048182656    4    4    2    1
 0.9065871035327143    4    4    2    2
 0.889972885733179    4    4    3    3
 0.9975136259296548    4    4    4    4
 0.001266547057642468    4    4    5    1
 -0.03674375388939088    4    4    5    2
 0.6106838168187998    4    4    5    5
 0.001453029663436761    4    4    6    1
 -0.04066704054125215    4    4    6    2
 -0.2958483038202721    4    4    6    5
 0.5804211820637685    4    4    6    6
 0.04273206750273179    5    1    1    1
 -0.006663150337459986    5    1    2    1
 0.002167506027550676    5    1    2    2
 0.00126654705764246    5    1    3    3
 0.00126654705764246    5    1    4    4
 0.01504531335984483    5    1    5    1
 0.02055842037713464    5    1    5    2
 -0.0003503916766030911    5    1    5    5
 -0.01427957589074355    5    1    6    1
 -0.02000899935751142    5    1    6    2
 0.0009210241147960275    5    1    6    5
 0.005039736113473105    5    1    6    6
 -0.06326720770218239    5    2    1    1
 0.002033035565476828    5    2    2    1
 -0.03350192050631368    5    2    2    2
 -0.0367437538893909    5    2    3    3
 -0.03674375388939088    5    2    4    4
 0.02055842037713464    5    2    5    1
 0.1103918673328587    5    2    5    2
 -0.0003513655272751881    5    2    5    5
 -0.02125125915872017    5    2    6    1
 -0.09322926059141168    5    2    6    2
 0.04597209241808368    5    2    6    5
 0.02364548167666269    5    2    6    6
 -0.002988334041391117    5    3    3    1
 -0.01257389767593025    5    3    3    2
 0.02906799738960059    5    3    5    3
 -0.02597212550200765    5    3    6    3
 1.073272107456799e-15    5    4    1    1
 -0.002988334041391115    5    4    4    1
 -0.01257389767593025    5    4    4    2
 0.02906799738960058    5    4    5    4
 -0.02597212550200764    5    4    6    4
 0.8032413695944642    5    5    1    1
 -0.0078146118967241    5    5    2    1
 0.6239495282996076    5    5    2    2
 0.6106838168188    5    5    3    3
 0.6106838168187998    5    5    4    4
 -0.0003503916766030791    5    5    5    1
 -0.000351365527275195    5    5    5    2
 0.6013314631462616    5    5    5    5
 0.001633334552314987    5    5    6    1
 -0.01535021565795117    5    5    6    2
 -0.07657551280071132    5    5    6    5
 0.5991776721050766    5    5    6    6
 0.04718186788679878    6    1    1    1
 -0.007401948202746992    6    1    2    1
 0.002085290846927231    6    1    2    2
 0.001453029663436754    6    1    3    3
 0.001453029663436754    6    1    4    4
 -0.01427957589074355    6    1    5    1
 -0.02125125915872017    6    1    5    2
 0.001633334552314976    6    1    5    5
 0.01591470123257545    6    1    6    1
 0.01997033703901301    6    1    6    2
 -0.002549943303429932    6    1    6    5
 -0.003912634721767637    6    1    6    6
 -0.07009279355375882    6    2    1    1
 0.002063531300523237    6    2    2    1
 -0.03946996804002341    6    2    2    2
 -0.04066704054125217    6    2    3    3
 -0.04066704054125216    6    2    4    4
 -0.02000899935751142    6    2    5    1
 -0.09322926059141171    6    2    5    2
 -0.01535021565795116    6    2    5    5
 0.01997033703901301    6    2    6    1
 0.09202035522224414    6    2    6    2
 0.01427615841357131    6    2    6    5
 -0.0323795289376281    6    2    6    6
 -0.003176118238949012    6    3    3    1
 -0.01331738529900934    6    3    3    2
 -0.02597212550200765    6    3    5    3
 0.0268607399834612    6    3    6    3
 -0.00317611823894901    6    4    4    1
 -0.01331738529900933    6    4    4    2
 -0.02597212550200764    6    4    5    4
 0.02686073998346119    6    4    6    4
 -0.4787795687601703    6    5    1    1
 0.007620976256310395    6    5    2    1
 -0.3002923232102609    6    5    2    2
 -0.2958483038202723    6    5    3    3
 -0.2958483038202722    6    5    4    4
 0.0009210241147960289    6    5    5    1
 0.0459720924180837    6    5    5    2
 -0.07657551280071147    6    5    5    5
 -0.002549943303429932    6    5    6    1
 0.01427615841357129    6    5    6    2
 0.2859067271390758    6    5    6    5
 -0.03506005774046281    6    5    6    6
 0.7752673390892055    6    6    1    1
 -0.008139709045321596    6    6    2    1
 0.5919302662582027    6    6    2    2
 0.5804211820637684    6    6    3    3
 0.5804211820637681    6    6    4    4
 0.005039736113473107    6    6    5    1
 0.02364548167666269    6    6    5    2
 0.5991776721050767    6    6    5    5
 -0.003912634721767629    6    6    6    1
 -0.0323795289376281    6    6    6    2
 -0.03506005774046272    6    6    6    5
 0.61262791594741    6    6    6    6
 -40.3134713415728    1    1  0  0
 0.7345144843513821    2    1  0  0
 -9.090645844365689    2    2  0  0
 -8.499557894528674    3    3  0  0
 -8.499557894528671    4    4  0  0
 -0.05572650858030974    5    1  0  0
 0.2755517578478893    5    2  0  0
 1.301199386252488e-15    5    3  0  0
 -5.907480560458221e-15    5    4  0  0
 -6.066932761095158    5    5  0  0
 -0.06379891746408918    6    1  0  0
 0.3849595211117912    6    2  0  0
 1.140357727886309e-15    6    3  0  0
 -4.682275399061525e-15    6    4  0  0
 2.658659401869145    6    5  0  0
 -5.656548982600009    6    6  0  0
 2.748179398892094  0  0  0  0
